 Gaussian 16, Revision A.03,
 Gaussian 16:  ES64L-G16RevA.03 25-Dec-2016

 --------------------------------------------------------------------
 # opt=calcfc freq=noraman 6-31+g(d,p) scrf=(smd,solvent=water) m062x
 --------------------------------------------------------------------

 -------------------
 Title Card Required
 -------------------
 Symbolic Z-matrix:
 Charge =  0 Multiplicity = 1

 SCF Done:  E(RM062X) =  -56.5360438342     A.U. after    9 cycles
 SCF Done:  E(RM062X) =  -56.5361175672     A.U. after    8 cycles
 Optimization completed.
    -- Stationary point found.
 Normal termination of Gaussian 16 at Mon Jul 22 11:59:03 2024.

 ----------------------------------------------------------------------
 #N Geom=AllCheck Guess=TCheck SCRF=Check GenChk RM062X/6-31+G(d,p) Fre
 q
 ----------------------------------------------------------------------

 Structure from the checkpoint file:  "/home/anmol/scrh/Gau-401438.chk"
 -------------------
 Title Card Required
 -------------------
 Charge =  0 Multiplicity = 1

                         Standard orientation:
 ---------------------------------------------------------------------
 Center     Atomic      Atomic             Coordinates (Angstroms)
 Number     Number       Type             X           Y           Z
 ---------------------------------------------------------------------
      1          7           0       -0.000000    0.000012   -0.115078
      2          1           0       -0.143654   -0.930059    0.268496
      3          1           0       -0.733689    0.589384    0.268496
      4          1           0        0.877344    0.340593    0.268554
 ---------------------------------------------------------------------

 SCF Done:  E(RM062X) =  -56.5361175672     A.U. after    1 cycles

 The electronic state is 1-A.
 Alpha  occ. eigenvalues --  -14.73682  -0.94842  -0.52197  -0.52195  -0.33882
 Alpha virt. eigenvalues --    0.06027   0.11263   0.11264   0.13520   0.26019
 Alpha virt. eigenvalues --    0.26023   0.31081   0.88749   0.88750   0.94659
 Alpha virt. eigenvalues --    0.99037   0.99041   1.14739   1.18814   1.47560

 Mulliken charges:
               1
     1  N   -1.020171
     2  H    0.340079
     3  H    0.340130
     4  H    0.339962
 Sum of Mulliken charges =   0.00000

 Dipole moment (field-independent basis, Debye):
    X=             -0.0006    Y=             -0.0002    Z=              2.3288  Tot=              2.3288
 Quadrupole moment (field-independent basis, Debye-Ang):
   XX=             -6.2046   YY=             -6.2050   ZZ=             -9.7710
   XY=             -0.0002   XZ=             -0.0000   YZ=             -0.0000

  Exact polarizability:  12.187  -0.004  12.190  -0.001  -0.002  13.277
 Approx polarizability:  10.245   0.000  10.243   0.001   0.000   9.980

                      1                      2                      3
                      A                      A                      A
 Frequencies --   1071.5024              1623.9216              1625.8157
 Red. masses --      1.1785                 1.0651                 1.0651
 Frc consts  --      0.7972                 1.6549                 1.6587
 IR Inten    --    321.4494                46.3047                45.7116

                      4                      5                      6
                      A                      A                      A
 Frequencies --   3508.6297              3637.5187              3639.1976
 Red. masses --      1.0284                 1.0903                 1.0903
 Frc consts  --      7.4590                 8.5000                 8.5074
 IR Inten    --      0.7498                29.5211                29.1223

 - Thermochemistry -
 -------------------
 Temperature   298.150 Kelvin.  Pressure   1.00000 Atm.
 Atom     1 has atomic number  7 and mass  14.00307

 Molecular mass:    17.02655 amu.
 Principal axes and moments of inertia in atomic units:
                           1         2         3
     Eigenvalues --     6.08748   6.08849   9.56276
           X            1.00000   0.00000  -0.00005
           Y           -0.00000   1.00000   0.00002
           Z            0.00005  -0.00002   1.00000
 This molecule is an asymmetric top.
 Rotational symmetry number  1.
 Rotational temperatures (Kelvin)     14.22822    14.22585     9.05742
 Rotational constants (GHZ):         296.46788   296.41858   188.72593
 Zero-point vibrational energy      90357.4 (Joules/Mol)
                                   21.59595 (Kcal/Mol)
 Vibrational temperatures:   1541.65  2336.46  2339.19  5048.14  5233.58
          (Kelvin)           5235.99

 Zero-point correction=                           0.034415 (Hartree/Particle)
 Thermal correction to Energy=                    0.037282
 Thermal correction to Enthalpy=                  0.038226
 Thermal correction to Gibbs Free Energy=         0.015343
 Sum of electronic and zero-point Energies=            -56.501702
 Sum of electronic and thermal Energies=               -56.498836
 Sum of electronic and thermal Enthalpies=             -56.497892
 Sum of electronic and thermal Free Energies=          -56.520774

                     E (Thermal)             CV                S
                      KCal/Mol        Cal/Mol-Kelvin    Cal/Mol-Kelvin
 Total                   23.395              6.363             48.160
 Electronic               0.000              0.000              0.000
 Translational            0.889              2.981             34.441
 Rotational               0.889              2.981             13.636
 Vibrational             21.617              0.401              0.084

 Optimization completed.
    -- Stationary point found.
 Normal termination of Gaussian 16 at Mon Jul 22 11:59:08 2024.
