 Gaussian 16, Revision A.03,
 Gaussian 16:  ES64L-G16RevA.03 25-Dec-2016

 -------------------------------------------------------------
 # opt freq=noraman 6-31+g(d,p) scrf=(smd,solvent=water) m062x
 -------------------------------------------------------------

 -------------------
 Title Card Required
 -------------------
 Symbolic Z-matrix:
 Charge =  0 Multiplicity = 1

 SCF Done:  E(RM062X) =  -500.052349448     A.U. after   10 cycles
 Optimization completed.
    -- Stationary point found.
 Normal termination of Gaussian 16 at Mon Jul 22 16:24:11 2024.

 ----------------------------------------------------------------------
 #N Geom=AllCheck Guess=TCheck SCRF=Check GenChk RM062X/6-31+G(d,p) Fre
 q
 ----------------------------------------------------------------------

 Structure from the checkpoint file:  "/home/anmol/scrh/Gau-432006.chk"
 -------------------
 Title Card Required
 -------------------
 Charge =  0 Multiplicity = 1

                         Standard orientation:
 ---------------------------------------------------------------------
 Center     Atomic      Atomic             Coordinates (Angstroms)
 Number     Number       Type             X           Y           Z
 ---------------------------------------------------------------------
      1          6           0       -1.138154    0.000027   -0.000006
      2         17           0        0.661817   -0.000004    0.000002
      3          1           0       -1.474040   -0.389555    0.958745
      4          1           0       -1.474008   -0.635697   -0.816651
      5          1           0       -1.473917    1.025165   -0.142084
 ---------------------------------------------------------------------

 SCF Done:  E(RM062X) =  -500.052349448     A.U. after    1 cycles

 The electronic state is 1-A.
 Alpha  occ. eigenvalues -- -102.65581 -10.59081  -9.80316  -7.52702  -7.52064
 Alpha  occ. eigenvalues --   -7.52064  -0.94591  -0.75688  -0.50616  -0.50611
 Alpha  occ. eigenvalues --   -0.46540  -0.36048  -0.36047
 Alpha virt. eigenvalues --    0.03099   0.03786   0.07171   0.07173   0.09374
 Alpha virt. eigenvalues --    0.11227   0.11228   0.12742   0.18005   0.23062
 Alpha virt. eigenvalues --    0.23065   0.30739   0.60801   0.64170   0.64172

 Mulliken charges:
               1
     1  C   -0.565195
     2  Cl  -0.119747
     3  H    0.228433
     4  H    0.228272
     5  H    0.228237
 Sum of Mulliken charges =   0.00000

 Dipole moment (field-independent basis, Debye):
    X=             -2.7834    Y=             -0.0004    Z=              0.0005  Tot=              2.7834
 Quadrupole moment (field-independent basis, Debye-Ang):
   XX=            -18.0876   YY=            -20.0346   ZZ=            -20.0349
   XY=              0.0006   XZ=             -0.0006   YZ=             -0.0002

  Exact polarizability:  36.799  -0.015  24.117   0.006   0.002  24.100
 Approx polarizability:  31.858   0.001  20.568   0.000   0.000  20.566

                      1                      2                      3
                      A                      A                      A
 Frequencies --    727.9268              1051.7124              1052.6695
 Red. masses --      7.4307                 1.1696                 1.1705
 Frc consts  --      2.3198                 0.7622                 0.7642
 IR Inten    --     60.1967                 3.5510                 3.6460

                      4                      5                      6
                      A                      A                      A
 Frequencies --   1401.1684              1471.0881              1472.1304
 Red. masses --      1.1259                 1.0519                 1.0513
 Frc consts  --      1.3024                 1.3412                 1.3424
 IR Inten    --     15.6254                14.9790                15.1416

                      7                      8                      9
                      A                      A                      A
 Frequencies --   3120.4875              3233.9958              3235.5804
 Red. masses --      1.0271                 1.1107                 1.1106
 Frc consts  --      5.8926                 6.8440                 6.8506
 IR Inten    --     19.2669                 1.0783                 1.1549

 - Thermochemistry -
 -------------------
 Temperature   298.150 Kelvin.  Pressure   1.00000 Atm.
 Atom     1 has atomic number  6 and mass  12.00000

 Molecular mass:    49.99233 amu.
 Principal axes and moments of inertia in atomic units:
                           1         2         3
     Eigenvalues --    11.56406 137.64006 137.64196
           X            1.00000   0.00001  -0.00000
           Y           -0.00001   1.00000   0.00000
           Z            0.00000  -0.00000   1.00000
 This molecule is an asymmetric top.
 Rotational symmetry number  1.
 Rotational temperatures (Kelvin)      7.48992     0.62928     0.62927
 Rotational constants (GHZ):         156.06461    13.11203    13.11185
 Zero-point vibrational energy     100287.5 (Joules/Mol)
                                   23.96929 (Kcal/Mol)
 Vibrational temperatures:   1047.32  1513.18  1514.56  2015.97  2116.57
          (Kelvin)           2118.07  4489.69  4653.00  4655.28

 Zero-point correction=                           0.038197 (Hartree/Particle)
 Thermal correction to Energy=                    0.041211
 Thermal correction to Enthalpy=                  0.042155
 Thermal correction to Gibbs Free Energy=         0.014529
 Sum of electronic and zero-point Energies=           -500.014152
 Sum of electronic and thermal Energies=              -500.011139
 Sum of electronic and thermal Enthalpies=            -500.010195
 Sum of electronic and thermal Free Energies=         -500.037820

                     E (Thermal)             CV                S
                      KCal/Mol        Cal/Mol-Kelvin    Cal/Mol-Kelvin
 Total                   25.860              7.656             58.143
 Electronic               0.000              0.000              0.000
 Translational            0.889              2.981             37.651
 Rotational               0.889              2.981             20.021
 Vibrational             24.083              1.695              0.471

 Optimization completed.
    -- Stationary point found.
 Normal termination of Gaussian 16 at Mon Jul 22 16:24:17 2024.
