 Gaussian 16, Revision A.03,
 Gaussian 16:  ES64L-G16RevA.03 25-Dec-2016

 -------------------------------------------------------------
 # opt freq=noraman 6-31+g(d,p) scrf=(smd,solvent=water) m062x
 -------------------------------------------------------------

 -------------------
 Title Card Required
 -------------------
 Symbolic Z-matrix:
 Charge =  0 Multiplicity = 1

 SCF Done:  E(RM062X) =  -556.634303697     A.U. after   11 cycles
 SCF Done:  E(RM062X) =  -556.634354381     A.U. after   10 cycles
 SCF Done:  E(RM062X) =  -556.634282899     A.U. after   10 cycles
 SCF Done:  E(RM062X) =  -556.634562590     A.U. after    9 cycles
 SCF Done:  E(RM062X) =  -556.634558432     A.U. after    8 cycles
 SCF Done:  E(RM062X) =  -556.634569300     A.U. after    8 cycles
 SCF Done:  E(RM062X) =  -556.634569162     A.U. after    8 cycles
 SCF Done:  E(RM062X) =  -556.634569273     A.U. after    7 cycles
 Optimization completed.
    -- Stationary point found.

 1\1\GINC-ANMOL\FOpt\RM062X\6-31+G(d,p)\C1H6Cl1N1\ANMOL\22-Jul-2024\0\\
 # opt freq=noraman 6-31+g(d,p) scrf=(smd,solvent=water) m062x\\Title C
 ard Required\\0,1\C,-1.9258673537,0.6002016079,0.0001433689\H,-3.00057
 34312,0.430873963,0.0002550649\H,-1.628289207,1.1479719736,0.892413995
 4\H,-1.6285143039,1.1482278833,-0.8920458471\Cl,1.7239180406,0.1679882
 968,-0.0000223484\N,-1.224010606,-0.7083209499,-0.0001283476\H,-1.4691
 151098,-1.2583853149,0.8261160859\H,-1.4693738729,-1.2581872651,-0.826
 4279638\H,-0.1856071561,-0.5411991948,-0.000269008\\Version=ES64L-G16R

 Normal termination of Gaussian 16 at Mon Jul 22 11:57:46 2024.

 ----------------------------------------------------------------------
 #N Geom=AllCheck Guess=TCheck SCRF=Check GenChk RM062X/6-31+G(d,p) Fre
 q
 ----------------------------------------------------------------------

 Structure from the checkpoint file:  "/home/anmol/scrh/Gau-399850.chk"
 -------------------
 Title Card Required
 -------------------
 Charge =  0 Multiplicity = 1

                         Standard orientation:
 ---------------------------------------------------------------------
 Center     Atomic      Atomic             Coordinates (Angstroms)
 Number     Number       Type             X           Y           Z
 ---------------------------------------------------------------------
      1          6           0       -1.901493   -0.628066   -0.000000
      2          1           0       -2.981006   -0.492733   -0.000121
      3          1           0       -1.586793   -1.166349   -0.892170
      4          1           0       -1.586981   -1.166262    0.892289
      5         17           0        1.732838   -0.080906   -0.000000
      6          7           0       -1.241273    0.701951    0.000000
      7          1           0       -1.503625    1.243846   -0.826346
      8          1           0       -1.503851    1.243963    0.826198
      9          1           0       -0.198114    0.567677    0.000151
 ---------------------------------------------------------------------

 SCF Done:  E(RM062X) =  -556.634569273     A.U. after    1 cycles

 The electronic state is 1-A.
 Alpha  occ. eigenvalues -- -102.56182 -14.84785 -10.58665  -9.70781  -7.42812
 Alpha  occ. eigenvalues --   -7.42754  -7.42752  -1.08217  -0.80100  -0.79349
 Alpha  occ. eigenvalues --   -0.63237  -0.62791  -0.54053  -0.46547  -0.46516
 Alpha  occ. eigenvalues --   -0.31186  -0.30597  -0.30584
 Alpha virt. eigenvalues --    0.02355   0.04910   0.06026   0.06326   0.09662
 Alpha virt. eigenvalues --    0.10149   0.10683   0.12475   0.13936   0.14717
 Alpha virt. eigenvalues --    0.17614   0.19687   0.23328   0.23455   0.24361

 Mulliken charges:
               1
     1  C   -0.391684
     2  H    0.215174
     3  H    0.217112
     4  H    0.217112
     5  Cl  -0.877599
     6  N   -0.613593
     7  H    0.439157
     8  H    0.439155
     9  H    0.355166
 Sum of Mulliken charges =   0.00000

 Dipole moment (field-independent basis, Debye):
    X=            -13.3661    Y=              2.9771    Z=             -0.0000  Tot=             13.6936
 Quadrupole moment (field-independent basis, Debye-Ang):
   XX=            -32.3825   YY=            -24.7148   ZZ=            -27.0550
   XY=             -2.6460   XZ=             -0.0000   YZ=             -0.0000

  Exact polarizability:  55.025  -3.008  42.026  -0.000   0.000  40.498
 Approx polarizability:  43.049  -2.617  34.289  -0.000   0.000  33.323

                      1                      2                      3
                      A                      A                      A
 Frequencies --     99.1372               161.9564               204.6212
 Red. masses --      3.2842                 1.0638                 3.9097
 Frc consts  --      0.0190                 0.0164                 0.0964
 IR Inten    --     11.1830                 1.3073               159.2603

                      4                      5                      6
                      A                      A                      A
 Frequencies --    369.2719               927.5313               945.3692
 Red. masses --      1.0202                 1.0488                 1.0611
 Frc consts  --      0.0820                 0.5316                 0.5587
 IR Inten    --      1.0192                38.5396                92.1479

                      7                      8                      9
                      A                      A                      A
 Frequencies --   1038.6258              1284.7438              1295.7557
 Red. masses --      4.2411                 1.4076                 1.4142
 Frc consts  --      2.6955                 1.3689                 1.3990
 IR Inten    --     10.4650                14.7060                 7.3616

                     10                     11                     12
                      A                      A                      A
 Frequencies --   1459.8174              1491.0515              1495.2663
 Red. masses --      1.1679                 1.0767                 1.0327
 Frc consts  --      1.4663                 1.4103                 1.3604
 IR Inten    --      4.6248                39.6371                26.7364

                     13                     14                     15
                      A                      A                      A
 Frequencies --   1501.2641              1607.7939              1621.7845
 Red. masses --      1.1267                 1.0285                 1.0371
 Frc consts  --      1.4961                 1.5664                 1.6071
 IR Inten    --    127.2525                31.2898                50.6296

                     16                     17                     18
                      A                      A                      A
 Frequencies --   2903.9502              3129.8074              3231.9317
 Red. masses --      1.0814                 1.0318                 1.1092
 Frc consts  --      5.3729                 5.9551                 6.8261
 IR Inten    --   2057.3503                 9.1556                 3.3427

                     19                     20                     21
                      A                      A                      A
 Frequencies --   3234.2492              3495.2246              3558.6696
 Red. masses --      1.1092                 1.0555                 1.0944
 Frc consts  --      6.8363                 7.5974                 8.1659
 IR Inten    --      1.5075               149.3638               183.9571

 - Thermochemistry -
 -------------------
 Temperature   298.150 Kelvin.  Pressure   1.00000 Atm.
 Atom     1 has atomic number  6 and mass  12.00000

 Molecular mass:    67.01888 amu.
 Principal axes and moments of inertia in atomic units:
                           1         2         3
     Eigenvalues --    75.92159 677.76585 732.39859
           X            0.99997   0.00828   0.00000
           Y           -0.00828   0.99997  -0.00000
           Z           -0.00000   0.00000   1.00000
 This molecule is an asymmetric top.
 Rotational symmetry number  1.
 Rotational temperatures (Kelvin)      1.14083     0.12779     0.11826
 Rotational constants (GHZ):          23.77112     2.66278     2.46415
 Zero-point vibrational energy     209692.3 (Joules/Mol)
                                   50.11767 (Kcal/Mol)
 Warning -- explicit consideration of   4 degrees of freedom as
           vibrations may cause significant error
 Vibrational temperatures:    142.64   233.02   294.40   531.30  1334.51
          (Kelvin)           1360.18  1494.35  1848.46  1864.30  2100.35
                             2145.29  2151.35  2159.98  2313.26  2333.39
                             4178.14  4503.09  4650.03  4653.36  5028.85
                             5120.13

 Zero-point correction=                           0.079868 (Hartree/Particle)
 Thermal correction to Energy=                    0.085129
 Thermal correction to Enthalpy=                  0.086073
 Thermal correction to Gibbs Free Energy=         0.051258
 Sum of electronic and zero-point Energies=           -556.554702
 Sum of electronic and thermal Energies=              -556.549440
 Sum of electronic and thermal Enthalpies=            -556.548496
 Sum of electronic and thermal Free Energies=         -556.583312

                     E (Thermal)             CV                S
                      KCal/Mol        Cal/Mol-Kelvin    Cal/Mol-Kelvin
 Total                   53.419             15.131             73.276
 Electronic               0.000              0.000              0.000
 Translational            0.889              2.981             38.525
 Rotational               0.889              2.981             25.136
 Vibrational             51.642              9.169              9.615
 Vibration     1          0.604              1.950              3.471
 Vibration     2          0.622              1.889              2.527
 Vibration     3          0.640              1.833              2.091
 Vibration     4          0.742              1.535              1.083

 Optimization completed.
    -- Stationary point found.

 1\1\GINC-ANMOL\Freq\RM062X\6-31+G(d,p)\C1H6Cl1N1\ANMOL\22-Jul-2024\0\\
 #N Geom=AllCheck Guess=TCheck SCRF=Check GenChk RM062X/6-31+G(d,p) Fre
 q\\Title Card Required\\0,1\C,-1.9258673537,0.6002016079,0.0001433689\
 H,-3.0005734312,0.430873963,0.0002550649\H,-1.628289207,1.1479719736,0
 .8924139954\H,-1.6285143039,1.1482278833,-0.8920458471\Cl,1.7239180406
 ,0.1679882968,-0.0000223484\N,-1.224010606,-0.7083209499,-0.0001283476
 \H,-1.4691151098,-1.2583853149,0.8261160859\H,-1.4693738729,-1.2581872
 651,-0.8264279638\H,-0.1856071561,-0.5411991948,-0.000269008\\Version=

 Normal termination of Gaussian 16 at Mon Jul 22 11:58:05 2024.
