 Gaussian 16, Revision A.03,
 Gaussian 16:  ES64L-G16RevA.03 25-Dec-2016

 ----------------------------------------------------------------------
 # opt=(calcfc,ts,noeigentest) freq=noraman 6-31+g(d,p) scrf=(smd,solve
 nt=water) m062x
 ----------------------------------------------------------------------

 -------------------
 Title Card Required
 -------------------
 Symbolic Z-matrix:
 Charge =  0 Multiplicity = 1

 SCF Done:  E(RM062X) =  -556.563695032     A.U. after   12 cycles
 SCF Done:  E(RM062X) =  -556.563861121     A.U. after   10 cycles
 SCF Done:  E(RM062X) =  -556.563860818     A.U. after    8 cycles
 Optimization completed.
    -- Stationary point found.
 Normal termination of Gaussian 16 at Mon Jul 22 11:59:48 2024.

 ----------------------------------------------------------------------
 #N Geom=AllCheck Guess=TCheck SCRF=Check GenChk RM062X/6-31+G(d,p) Fre
 q
 ----------------------------------------------------------------------

 Structure from the checkpoint file:  "/home/anmol/scrh/Gau-401960.chk"
 -------------------
 Title Card Required
 -------------------
 Charge =  0 Multiplicity = 1

                         Standard orientation:
 ---------------------------------------------------------------------
 Center     Atomic      Atomic             Coordinates (Angstroms)
 Number     Number       Type             X           Y           Z
 ---------------------------------------------------------------------
      1          6           0       -0.417926    0.000176   -0.000002
      2          1           0       -0.472149   -0.538537   -0.931724
      3          1           0       -0.472208    1.076509   -0.000511
      4          1           0       -0.472152   -0.537653    0.932231
      5         17           0        1.788229   -0.000046    0.000000
      6          7           0       -2.539592   -0.000150    0.000000
      7          1           0       -2.899309    0.475415   -0.823718
      8          1           0       -2.899298    0.476041    0.823361
      9          1           0       -2.900082   -0.950992    0.000364
 ---------------------------------------------------------------------

 SCF Done:  E(RM062X) =  -556.563860818     A.U. after    1 cycles

 The electronic state is 1-A.
 Alpha  occ. eigenvalues -- -102.59009 -14.76789 -10.61129  -9.73660  -7.45833
 Alpha  occ. eigenvalues --   -7.45531  -7.45531  -0.97809  -0.85237  -0.76284
 Alpha  occ. eigenvalues --   -0.55461  -0.55456  -0.49720  -0.49719  -0.41969
 Alpha  occ. eigenvalues --   -0.32366  -0.32366  -0.30913
 Alpha virt. eigenvalues --    0.01471   0.03401   0.07278   0.07279   0.07619
 Alpha virt. eigenvalues --    0.09261   0.11395   0.11395   0.15158   0.15381
 Alpha virt. eigenvalues --    0.15382   0.20857   0.22473   0.22482   0.23704

 Mulliken charges:
               1
     1  C   -0.394964
     2  H    0.244132
     3  H    0.244333
     4  H    0.244131
     5  Cl  -0.554544
     6  N   -0.907337
     7  H    0.374745
     8  H    0.374746
     9  H    0.374758
 Sum of Mulliken charges =   0.00000

 Dipole moment (field-independent basis, Debye):
    X=            -11.3481    Y=              0.0020    Z=              0.0000  Tot=             11.3481
 Quadrupole moment (field-independent basis, Debye-Ang):
   XX=            -24.7309   YY=            -26.6086   ZZ=            -26.6127
   XY=             -0.0022   XZ=             -0.0000   YZ=              0.0000

  Exact polarizability: 109.744   0.024  38.711   0.000   0.000  38.780
 Approx polarizability:  79.985   0.001  32.603   0.000  -0.000  32.600

 ******    1 imaginary frequencies (negative Signs) ******

                      1                      2                      3
                      A                      A                      A
 Frequencies --   -611.6049               129.0402               213.4858
 Red. masses --      8.9951                 1.0089                 2.3135
 Frc consts  --      1.9824                 0.0099                 0.0621
 IR Inten    --   1981.8301                 0.0455                 0.6870

                      4                      5                      6
                      A                      A                      A
 Frequencies --    217.7853               279.1690               484.8088
 Red. masses --      2.4040                 6.6531                 1.3237
 Frc consts  --      0.0672                 0.3055                 0.1833
 IR Inten    --      0.3454                28.4493                74.0484

                      7                      8                      9
                      A                      A                      A
 Frequencies --    496.4598              1100.3870              1102.2537
 Red. masses --      1.2935                 1.0204                 1.0206
 Frc consts  --      0.1878                 0.7280                 0.7305
 IR Inten    --     73.9819                 2.2752                 2.3714

                     10                     11                     12
                      A                      A                      A
 Frequencies --   1122.3992              1192.6993              1388.7504
 Red. masses --      1.1961                 1.0478                 1.1054
 Frc consts  --      0.8878                 0.8782                 1.2561
 IR Inten    --    221.4936               174.8924                 8.8084

                     13                     14                     15
                      A                      A                      A
 Frequencies --   1389.1517              1611.2279              1613.5551
 Red. masses --      1.1058                 1.0629                 1.0627
 Frc consts  --      1.2573                 1.6257                 1.6301
 IR Inten    --      8.6385                61.1493                61.1821

                     16                     17                     18
                      A                      A                      A
 Frequencies --   3189.9402              3393.3988              3394.6459
 Red. masses --      1.0083                 1.1257                 1.1256
 Frc consts  --      6.0454                 7.6377                 7.6425
 IR Inten    --      0.0006                 3.8032                 4.1969

                     19                     20                     21
                      A                      A                      A
 Frequencies --   3502.4203              3642.1293              3644.5868
 Red. masses --      1.0263                 1.0932                 1.0930
 Frc consts  --      7.4174                 8.5439                 8.5543
 IR Inten    --     36.9959                68.9541                68.4837

 - Thermochemistry -
 -------------------
 Temperature   298.150 Kelvin.  Pressure   1.00000 Atm.
 Atom     1 has atomic number  6 and mass  12.00000

 Molecular mass:    67.01888 amu.
 Principal axes and moments of inertia in atomic units:
                           1         2         3
     Eigenvalues --    22.27277 826.26976 826.27475
           X            1.00000  -0.00000  -0.00000
           Y            0.00000   1.00000   0.00000
           Z            0.00000  -0.00000   1.00000
 This molecule is an asymmetric top.
 Rotational symmetry number  1.
 Rotational temperatures (Kelvin)      3.88878     0.10483     0.10482
 Rotational constants (GHZ):          81.02905     2.18420     2.18419
    1 imaginary frequencies ignored.
 Zero-point vibrational energy     198031.6 (Joules/Mol)
                                   47.33068 (Kcal/Mol)
 Warning -- explicit consideration of   6 degrees of freedom as
           vibrations may cause significant error
 Vibrational temperatures:    185.66   307.16   313.34   401.66   697.53
          (Kelvin)            714.29  1583.21  1585.90  1614.88  1716.03
                             1998.10  1998.68  2318.20  2321.55  4589.61
                             4882.34  4884.14  5039.20  5240.21  5243.75

 Zero-point correction=                           0.075426 (Hartree/Particle)
 Thermal correction to Energy=                    0.081033
 Thermal correction to Enthalpy=                  0.081977
 Thermal correction to Gibbs Free Energy=         0.047345
 Sum of electronic and zero-point Energies=           -556.488435
 Sum of electronic and thermal Energies=              -556.482828
 Sum of electronic and thermal Enthalpies=            -556.481883
 Sum of electronic and thermal Free Energies=         -556.516516

                     E (Thermal)             CV                S
                      KCal/Mol        Cal/Mol-Kelvin    Cal/Mol-Kelvin
 Total                   50.849             17.123             72.890
 Electronic               0.000              0.000              0.000
 Translational            0.889              2.981             38.525
 Rotational               0.889              2.981             24.234
 Vibrational             49.072             11.162             10.130
 Vibration     1          0.612              1.924              2.960
 Vibration     2          0.644              1.820              2.014
 Vibration     3          0.646              1.814              1.977
 Vibration     4          0.679              1.712              1.539
 Vibration     5          0.841              1.284              0.697
 Vibration     6          0.852              1.258              0.667

 Optimization completed.
    -- Stationary point found.

 1\1\GINC-ANMOL\Freq\RM062X\6-31+G(d,p)\C1H6Cl1N1\ANMOL\22-Jul-2024\0\\
 #N Geom=AllCheck Guess=TCheck SCRF=Check GenChk RM062X/6-31+G(d,p) Fre
 q\\Title Card Required\\0,1\C,0.4107447993,-0.0002032031,-0.0000015321
 \H,0.464987038,0.5380416939,-0.9319927789\H,0.464995308,-1.0765379569,
 0.0000273427\H,0.4649835475,0.538089985,0.9319621264\Cl,-1.7954103708,
 0.0000839846,-0.0000078731\N,2.5324109451,0.0000594235,0.00000812\H,2.
 892116601,-0.4759281449,-0.8234707504\H,2.8920996888,-0.4757300809,0.8
 236086458\H,2.8929294431,0.9508912989,-0.0001023003\\Version=ES64L-G16

 Normal termination of Gaussian 16 at Mon Jul 22 12:00:09 2024.
