 Gaussian 16, Revision A.03,
 Gaussian 16:  ES64L-G16RevA.03 25-Dec-2016

 --------------------------------------------------
 # freq 6-311+g(d,p) scrf=(smd,solvent=water) m062x
 --------------------------------------------------

 -------------------
 Title Card Required
 -------------------
 Symbolic Z-matrix:
 Charge =  0 Multiplicity = 1

                         Standard orientation:
 ---------------------------------------------------------------------
 Center     Atomic      Atomic             Coordinates (Angstroms)
 Number     Number       Type             X           Y           Z
 ---------------------------------------------------------------------
      1          7           0        0.000000   -0.000012   -0.115078
      2          1           0        0.141549    0.930382    0.268496
      3          1           0        0.735021   -0.587722    0.268496
      4          1           0       -0.876571   -0.342578    0.268554
 ---------------------------------------------------------------------

 SCF Done:  E(RM062X) =  -56.5524622523     A.U. after    9 cycles

 The electronic state is 1-A.
 Alpha  occ. eigenvalues --  -14.71759  -0.94830  -0.52292  -0.52290  -0.34079
 Alpha virt. eigenvalues --    0.04888   0.10315   0.10315   0.12953   0.20338
 Alpha virt. eigenvalues --    0.20343   0.24321   0.53285   0.53288   0.67470
 Alpha virt. eigenvalues --    0.77777   0.77779   0.82102   0.98153   1.17363

 Mulliken charges:
               1
     1  N   -0.836464
     2  H    0.278840
     3  H    0.278895
     4  H    0.278729
 Sum of Mulliken charges =  -0.00000

 Dipole moment (field-independent basis, Debye):
    X=              0.0005    Y=              0.0002    Z=              2.2414  Tot=              2.2414
 Quadrupole moment (field-independent basis, Debye-Ang):
   XX=             -6.2214   YY=             -6.2218   ZZ=             -9.7035
   XY=             -0.0002   XZ=              0.0000   YZ=              0.0000

  Exact polarizability:  12.847  -0.003  12.849   0.001   0.003  14.130
 Approx polarizability:  11.000   0.000  10.998  -0.001  -0.000  10.856

                      1                      2                      3
                      A                      A                      A
 Frequencies --   1062.5837              1622.3600              1624.1109
 Red. masses --      1.1785                 1.0651                 1.0651
 Frc consts  --      0.7840                 1.6518                 1.6552
 IR Inten    --    298.7579                41.8989                41.2708

                      4                      5                      6
                      A                      A                      A
 Frequencies --   3493.3597              3610.5769              3612.3747
 Red. masses --      1.0284                 1.0904                 1.0903
 Frc consts  --      7.3942                 8.3748                 8.3823
 IR Inten    --      0.8256                30.6407                30.3195

 - Thermochemistry -
 -------------------
 Temperature   298.150 Kelvin.  Pressure   1.00000 Atm.
 Atom     1 has atomic number  7 and mass  14.00307

 Molecular mass:    17.02655 amu.
 Principal axes and moments of inertia in atomic units:
                           1         2         3
     Eigenvalues --     6.08748   6.08849   9.56276
           X            1.00000   0.00000   0.00005
           Y           -0.00000   1.00000  -0.00002
           Z           -0.00005   0.00002   1.00000
 This molecule is an asymmetric top.
 Rotational symmetry number  1.
 Rotational temperatures (Kelvin)     14.22821    14.22585     9.05741
 Rotational constants (GHZ):         296.46787   296.41851   188.72588
 Zero-point vibrational energy      89871.6 (Joules/Mol)
                                   21.47984 (Kcal/Mol)
 Vibrational temperatures:   1528.82  2334.21  2336.73  5026.17  5194.81
          (Kelvin)           5197.40

 Zero-point correction=                           0.034230 (Hartree/Particle)
 Thermal correction to Energy=                    0.037098
 Thermal correction to Enthalpy=                  0.038042
 Thermal correction to Gibbs Free Energy=         0.015158
 Sum of electronic and zero-point Energies=            -56.518232
 Sum of electronic and thermal Energies=               -56.515365
 Sum of electronic and thermal Enthalpies=             -56.514420
 Sum of electronic and thermal Free Energies=          -56.537304

                     E (Thermal)             CV                S
                      KCal/Mol        Cal/Mol-Kelvin    Cal/Mol-Kelvin
 Total                   23.279              6.372             48.163
 Electronic               0.000              0.000              0.000
 Translational            0.889              2.981             34.441
 Rotational               0.889              2.981             13.636
 Vibrational             21.502              0.410              0.087

 Normal termination of Gaussian 16 at Mon Jul 22 16:30:25 2024.
