 Gaussian 16, Revision A.03,
 Gaussian 16:  ES64L-G16RevA.03 25-Dec-2016

 --------------------------------------------------
 # freq 6-311+g(d,p) scrf=(smd,solvent=water) m062x
 --------------------------------------------------

 -------------------
 Title Card Required
 -------------------
 Symbolic Z-matrix:
 Charge =  0 Multiplicity = 1

                         Standard orientation:
 ---------------------------------------------------------------------
 Center     Atomic      Atomic             Coordinates (Angstroms)
 Number     Number       Type             X           Y           Z
 ---------------------------------------------------------------------
      1          6           0       -1.138154    0.000027   -0.000006
      2         17           0        0.661817   -0.000004    0.000002
      3          1           0       -1.474040   -0.391120    0.958108
      4          1           0       -1.474008   -0.634363   -0.817688
      5          1           0       -1.473917    1.025396   -0.140410
 ---------------------------------------------------------------------

 SCF Done:  E(RM062X) =  -500.093394243     A.U. after   10 cycles

 The electronic state is 1-A.
 Alpha  occ. eigenvalues -- -102.66201 -10.58219  -9.80425  -7.52920  -7.52281
 Alpha  occ. eigenvalues --   -7.52281  -0.94635  -0.75714  -0.50698  -0.50693
 Alpha  occ. eigenvalues --   -0.46602  -0.36167  -0.36166
 Alpha virt. eigenvalues --    0.02436   0.03094   0.06145   0.06146   0.08997
 Alpha virt. eigenvalues --    0.10180   0.10181   0.11546   0.18885   0.18991
 Alpha virt. eigenvalues --    0.18993   0.24149   0.43003   0.43005   0.43479

 Mulliken charges:
               1
     1  C   -0.653805
     2  Cl  -0.024231
     3  H    0.226136
     4  H    0.225972
     5  H    0.225928
 Sum of Mulliken charges =  -0.00000

 Dipole moment (field-independent basis, Debye):
    X=             -2.7358    Y=             -0.0003    Z=              0.0005  Tot=              2.7358
 Quadrupole moment (field-independent basis, Debye-Ang):
   XX=            -18.0779   YY=            -20.1039   ZZ=            -20.1041
   XY=              0.0005   XZ=             -0.0006   YZ=             -0.0002

  Exact polarizability:  37.623  -0.011  24.576   0.006   0.001  24.561
 Approx polarizability:  33.004   0.001  21.488  -0.000   0.000  21.486

                      1                      2                      3
                      A                      A                      A
 Frequencies --    725.3357              1056.6222              1057.7558
 Red. masses --      7.3365                 1.1704                 1.1712
 Frc consts  --      2.2741                 0.7699                 0.7721
 IR Inten    --     60.4163                 4.2137                 4.3129

                      4                      5                      6
                      A                      A                      A
 Frequencies --   1403.9434              1471.3454              1472.6526
 Red. masses --      1.1282                 1.0513                 1.0508
 Frc consts  --      1.3101                 1.3409                 1.3426
 IR Inten    --     15.1005                14.6494                14.8495

                      7                      8                      9
                      A                      A                      A
 Frequencies --   3095.0441              3201.7807              3203.1427
 Red. masses --      1.0270                 1.1106                 1.1106
 Frc consts  --      5.7966                 6.7079                 6.7135
 IR Inten    --     18.8014                 1.1473                 1.2486

 - Thermochemistry -
 -------------------
 Temperature   298.150 Kelvin.  Pressure   1.00000 Atm.
 Atom     1 has atomic number  6 and mass  12.00000

 Molecular mass:    49.99233 amu.
 Principal axes and moments of inertia in atomic units:
                           1         2         3
     Eigenvalues --    11.56407 137.64006 137.64196
           X            1.00000   0.00001  -0.00000
           Y           -0.00001   1.00000   0.00000
           Z            0.00000  -0.00000   1.00000
 This molecule is an asymmetric top.
 Rotational symmetry number  1.
 Rotational temperatures (Kelvin)      7.48992     0.62928     0.62927
 Rotational constants (GHZ):         156.06457    13.11203    13.11185
 Zero-point vibrational energy      99814.1 (Joules/Mol)
                                   23.85615 (Kcal/Mol)
 Vibrational temperatures:   1043.60  1520.24  1521.87  2019.96  2116.94
          (Kelvin)           2118.82  4453.08  4606.65  4608.61

 Zero-point correction=                           0.038017 (Hartree/Particle)
 Thermal correction to Energy=                    0.041030
 Thermal correction to Enthalpy=                  0.041974
 Thermal correction to Gibbs Free Energy=         0.014349
 Sum of electronic and zero-point Energies=           -500.055377
 Sum of electronic and thermal Energies=              -500.052364
 Sum of electronic and thermal Enthalpies=            -500.051420
 Sum of electronic and thermal Free Energies=         -500.079046

                     E (Thermal)             CV                S
                      KCal/Mol        Cal/Mol-Kelvin    Cal/Mol-Kelvin
 Total                   25.747              7.650             58.143
 Electronic               0.000              0.000              0.000
 Translational            0.889              2.981             37.651
 Rotational               0.889              2.981             20.021
 Vibrational             23.969              1.689              0.470

 Normal termination of Gaussian 16 at Mon Jul 22 16:28:00 2024.
