 Gaussian 16, Revision A.03,
 Gaussian 16:  ES64L-G16RevA.03 25-Dec-2016

 --------------------------------------------------
 # freq 6-311+g(d,p) scrf=(smd,solvent=water) m062x
 --------------------------------------------------

 -------------------
 Title Card Required
 -------------------
 Symbolic Z-matrix:
 Charge =  0 Multiplicity = 1

                         Standard orientation:
 ---------------------------------------------------------------------
 Center     Atomic      Atomic             Coordinates (Angstroms)
 Number     Number       Type             X           Y           Z
 ---------------------------------------------------------------------
      1          6           0        1.901493   -0.628066    0.000000
      2          1           0        2.981006   -0.492733    0.000121
      3          1           0        1.586793   -1.166349    0.892170
      4          1           0        1.586981   -1.166262   -0.892289
      5         17           0       -1.732838   -0.080906    0.000000
      6          7           0        1.241273    0.701951    0.000000
      7          1           0        1.503625    1.243846    0.826346
      8          1           0        1.503851    1.243963   -0.826198
      9          1           0        0.198114    0.567677   -0.000151
 ---------------------------------------------------------------------

 SCF Done:  E(RM062X) =  -556.690828404     A.U. after   11 cycles

 The electronic state is 1-A.
 Alpha  occ. eigenvalues -- -102.56693 -14.83329 -10.57728  -9.70877  -7.43019
 Alpha  occ. eigenvalues --   -7.42959  -7.42958  -1.08252  -0.80314  -0.79428
 Alpha  occ. eigenvalues --   -0.63370  -0.62934  -0.54174  -0.46645  -0.46612
 Alpha  occ. eigenvalues --   -0.31465  -0.30896  -0.30883
 Alpha virt. eigenvalues --    0.01797   0.04099   0.05173   0.05257   0.08471
 Alpha virt. eigenvalues --    0.08803   0.09118   0.11122   0.13271   0.13762
 Alpha virt. eigenvalues --    0.15999   0.18377   0.19139   0.20914   0.21508

 Mulliken charges:
               1
     1  C   -0.448350
     2  H    0.206488
     3  H    0.211786
     4  H    0.211788
     5  Cl  -0.872346
     6  N   -0.373414
     7  H    0.377446
     8  H    0.377442
     9  H    0.309160
 Sum of Mulliken charges =  -0.00000

 Dipole moment (field-independent basis, Debye):
    X=             13.3524    Y=              2.9566    Z=              0.0000  Tot=             13.6758
 Quadrupole moment (field-independent basis, Debye-Ang):
   XX=            -32.3140   YY=            -24.7543   ZZ=            -27.0563
   XY=              2.5972   XZ=             -0.0001   YZ=              0.0000

  Exact polarizability:  56.189   3.122  42.906  -0.000  -0.000  41.644
 Approx polarizability:  44.509   2.810  35.349  -0.000  -0.000  34.879

                      1                      2                      3
                      A                      A                      A
 Frequencies --    101.7984               196.9064               207.8290
 Red. masses --      3.3544                 1.0640                 3.8312
 Frc consts  --      0.0205                 0.0243                 0.0975
 IR Inten    --     12.5318                 1.3348               158.9246

                      4                      5                      6
                      A                      A                      A
 Frequencies --    386.3845               934.9641               950.5516
 Red. masses --      1.0202                 1.0493                 1.0616
 Frc consts  --      0.0897                 0.5404                 0.5652
 IR Inten    --      1.0264                35.7100                91.0567

                      7                      8                      9
                      A                      A                      A
 Frequencies --   1036.5810              1289.6129              1301.7477
 Red. masses --      4.2587                 1.4058                 1.4148
 Frc consts  --      2.6961                 1.3775                 1.4125
 IR Inten    --      9.7962                11.5869                 5.0828

                     10                     11                     12
                      A                      A                      A
 Frequencies --   1463.4109              1493.6552              1497.5619
 Red. masses --      1.1685                 1.0656                 1.0324
 Frc consts  --      1.4744                 1.4007                 1.3641
 IR Inten    --      2.7051                30.0820                25.7881

                     13                     14                     15
                      A                      A                      A
 Frequencies --   1503.9258              1611.0452              1622.8264
 Red. masses --      1.1370                 1.0285                 1.0367
 Frc consts  --      1.5152                 1.5727                 1.6087
 IR Inten    --    125.0746                25.9653                43.6358

                     16                     17                     18
                      A                      A                      A
 Frequencies --   2887.4538              3106.0678              3201.6778
 Red. masses --      1.0819                 1.0318                 1.1090
 Frc consts  --      5.3147                 5.8648                 6.6980
 IR Inten    --   2047.5292                 7.8274                 2.9340

                     19                     20                     21
                      A                      A                      A
 Frequencies --   3204.2862              3479.2607              3534.8798
 Red. masses --      1.1091                 1.0545                 1.0941
 Frc consts  --      6.7093                 7.5207                 8.0550
 IR Inten    --      1.1052               134.7452               173.7576

 - Thermochemistry -
 -------------------
 Temperature   298.150 Kelvin.  Pressure   1.00000 Atm.
 Atom     1 has atomic number  6 and mass  12.00000

 Molecular mass:    67.01888 amu.
 Principal axes and moments of inertia in atomic units:
                           1         2         3
     Eigenvalues --    75.92160 677.76593 732.39869
           X            0.99997  -0.00828  -0.00000
           Y            0.00828   0.99997  -0.00000
           Z            0.00000   0.00000   1.00000
 This molecule is an asymmetric top.
 Rotational symmetry number  1.
 Rotational temperatures (Kelvin)      1.14083     0.12779     0.11826
 Rotational constants (GHZ):          23.77112     2.66278     2.46415
 Zero-point vibrational energy     209420.8 (Joules/Mol)
                                   50.05278 (Kcal/Mol)
 Warning -- explicit consideration of   4 degrees of freedom as
           vibrations may cause significant error
 Vibrational temperatures:    146.47   283.30   299.02   555.92  1345.20
          (Kelvin)           1367.63  1491.41  1855.47  1872.92  2105.52
                             2149.04  2154.66  2163.81  2317.93  2334.89
                             4154.40  4468.94  4606.50  4610.25  5005.88
                             5085.90

 Zero-point correction=                           0.079764 (Hartree/Particle)
 Thermal correction to Energy=                    0.084938
 Thermal correction to Enthalpy=                  0.085882
 Thermal correction to Gibbs Free Energy=         0.051314
 Sum of electronic and zero-point Energies=           -556.611064
 Sum of electronic and thermal Energies=              -556.605890
 Sum of electronic and thermal Enthalpies=            -556.604946
 Sum of electronic and thermal Free Energies=         -556.639514

                     E (Thermal)             CV                S
                      KCal/Mol        Cal/Mol-Kelvin    Cal/Mol-Kelvin
 Total                   53.299             15.020             72.755
 Electronic               0.000              0.000              0.000
 Translational            0.889              2.981             38.525
 Rotational               0.889              2.981             25.136
 Vibrational             51.522              9.058              9.094
 Vibration     1          0.604              1.948              3.420
 Vibration     2          0.636              1.844              2.162
 Vibration     3          0.641              1.829              2.063
 Vibration     4          0.755              1.499              1.014

 Normal termination of Gaussian 16 at Mon Jul 22 16:30:00 2024.
