 Gaussian 16, Revision A.03,
 Gaussian 16:  ES64L-G16RevA.03 25-Dec-2016

 --------------------------------------------------
 # freq 6-311+g(d,p) scrf=(smd,solvent=water) m062x
 --------------------------------------------------

 -------------------
 Title Card Required
 -------------------
 Symbolic Z-matrix:
 Charge =  0 Multiplicity = 1

                         Standard orientation:
 ---------------------------------------------------------------------
 Center     Atomic      Atomic             Coordinates (Angstroms)
 Number     Number       Type             X           Y           Z
 ---------------------------------------------------------------------
      1          6           0       -0.417926    0.000176   -0.000002
      2          1           0       -0.472149   -0.538870   -0.931531
      3          1           0       -0.472208    1.076509   -0.000896
      4          1           0       -0.472152   -0.537320    0.932423
      5         17           0        1.788229   -0.000046    0.000000
      6          7           0       -2.539592   -0.000150    0.000000
      7          1           0       -2.899309    0.475120   -0.823888
      8          1           0       -2.899298    0.476335    0.823191
      9          1           0       -2.900082   -0.950992    0.000704
 ---------------------------------------------------------------------

 SCF Done:  E(RM062X) =  -556.620516279     A.U. after   12 cycles

 The electronic state is 1-A.
 Alpha  occ. eigenvalues -- -102.59652 -14.74995 -10.60170  -9.73836  -7.46122
 Alpha  occ. eigenvalues --   -7.45816  -7.45816  -0.97837  -0.85443  -0.76413
 Alpha  occ. eigenvalues --   -0.55597  -0.55592  -0.49898  -0.49897  -0.42171
 Alpha  occ. eigenvalues --   -0.32636  -0.32636  -0.31159
 Alpha virt. eigenvalues --    0.01143   0.02655   0.06096   0.06097   0.07019
 Alpha virt. eigenvalues --    0.08063   0.10087   0.10087   0.13722   0.14272
 Alpha virt. eigenvalues --    0.14276   0.17504   0.17509   0.20709   0.22479

 Mulliken charges:
               1
     1  C   -0.543290
     2  H    0.240003
     3  H    0.240212
     4  H    0.240001
     5  Cl  -0.457558
     6  N   -0.616179
     7  H    0.298924
     8  H    0.298925
     9  H    0.298962
 Sum of Mulliken charges =  -0.00000

 Dipole moment (field-independent basis, Debye):
    X=            -11.2001    Y=              0.0019    Z=              0.0000  Tot=             11.2001
 Quadrupole moment (field-independent basis, Debye-Ang):
   XX=            -24.7830   YY=            -26.6703   ZZ=            -26.6745
   XY=             -0.0022   XZ=             -0.0000   YZ=              0.0000

  Exact polarizability: 112.005   0.030  39.937   0.000   0.000  39.988
 Approx polarizability:  81.719   0.001  34.309   0.000  -0.000  34.306

 ******    1 imaginary frequencies (negative Signs) ******

                      1                      2                      3
                      A                      A                      A
 Frequencies --   -613.7478               175.2972               215.9102
 Red. masses --      8.9379                 1.0109                 2.3311
 Frc consts  --      1.9837                 0.0183                 0.0640
 IR Inten    --   2015.9771                 0.0508                 0.5891

                      4                      5                      6
                      A                      A                      A
 Frequencies --    220.3511               279.2591               479.4565
 Red. masses --      2.4176                 6.6110                 1.3179
 Frc consts  --      0.0692                 0.3038                 0.1785
 IR Inten    --      0.2693                27.3418                66.0189

                      7                      8                      9
                      A                      A                      A
 Frequencies --    491.8079              1104.9184              1106.6247
 Red. masses --      1.2861                 1.0202                 1.0205
 Frc consts  --      0.1833                 0.7338                 0.7363
 IR Inten    --     66.0634                 2.5013                 2.6475

                     10                     11                     12
                      A                      A                      A
 Frequencies --   1114.5120              1197.9703              1386.0466
 Red. masses --      1.1951                 1.0503                 1.1054
 Frc consts  --      0.8746                 0.8881                 1.2512
 IR Inten    --    214.2452               176.8152                 9.8613

                     13                     14                     15
                      A                      A                      A
 Frequencies --   1386.5233              1611.3593              1613.7551
 Red. masses --      1.1058                 1.0630                 1.0629
 Frc consts  --      1.2526                 1.6262                 1.6309
 IR Inten    --      9.7423                56.0535                56.1365

                     16                     17                     18
                      A                      A                      A
 Frequencies --   3157.7203              3356.3259              3357.9647
 Red. masses --      1.0083                 1.1259                 1.1258
 Frc consts  --      5.9239                 7.4726                 7.4791
 IR Inten    --      0.1113                 3.8898                 4.0089

                     19                     20                     21
                      A                      A                      A
 Frequencies --   3487.3896              3614.5687              3617.5917
 Red. masses --      1.0262                 1.0931                 1.0930
 Frc consts  --      7.3532                 8.4145                 8.4278
 IR Inten    --     35.6336                68.1730                67.6217

 - Thermochemistry -
 -------------------
 Temperature   298.150 Kelvin.  Pressure   1.00000 Atm.
 Atom     1 has atomic number  6 and mass  12.00000

 Molecular mass:    67.01888 amu.
 Principal axes and moments of inertia in atomic units:
                           1         2         3
     Eigenvalues --    22.27277 826.26965 826.27464
           X            1.00000  -0.00000  -0.00000
           Y            0.00000   1.00000   0.00000
           Z            0.00000  -0.00000   1.00000
 This molecule is an asymmetric top.
 Rotational symmetry number  1.
 Rotational temperatures (Kelvin)      3.88878     0.10483     0.10482
 Rotational constants (GHZ):          81.02904     2.18420     2.18419
    1 imaginary frequencies ignored.
 Zero-point vibrational energy     197236.4 (Joules/Mol)
                                   47.14063 (Kcal/Mol)
 Warning -- explicit consideration of   6 degrees of freedom as
           vibrations may cause significant error
 Vibrational temperatures:    252.21   310.65   317.04   401.79   689.83
          (Kelvin)            707.60  1589.73  1592.19  1603.53  1723.61
                             1994.21  1994.90  2318.39  2321.83  4543.26
                             4829.00  4831.36  5017.58  5200.56  5204.91

 Zero-point correction=                           0.075123 (Hartree/Particle)
 Thermal correction to Energy=                    0.080650
 Thermal correction to Enthalpy=                  0.081594
 Thermal correction to Gibbs Free Energy=         0.047247
 Sum of electronic and zero-point Energies=           -556.545393
 Sum of electronic and thermal Energies=              -556.539866
 Sum of electronic and thermal Enthalpies=            -556.538922
 Sum of electronic and thermal Free Energies=         -556.573270

                     E (Thermal)             CV                S
                      KCal/Mol        Cal/Mol-Kelvin    Cal/Mol-Kelvin
 Total                   50.609             17.084             72.290
 Electronic               0.000              0.000              0.000
 Translational            0.889              2.981             38.525
 Rotational               0.889              2.981             24.234
 Vibrational             48.831             11.122              9.531
 Vibration     1          0.627              1.873              2.378
 Vibration     2          0.645              1.817              1.993
 Vibration     3          0.647              1.810              1.956
 Vibration     4          0.680              1.712              1.538
 Vibration     5          0.836              1.296              0.712
 Vibration     6          0.848              1.268              0.679

 Normal termination of Gaussian 16 at Mon Jul 22 16:28:50 2024.
